REMARK  Name = C10H16N2O3S
REMARK  5 active torsions:
REMARK  status: ('A' for Active; 'I' for Inactive)
REMARK    1  A    between atoms: C_1  and  C_2
REMARK    2  A    between atoms: C_1  and  C_10
REMARK    3  A    between atoms: C_2  and  C_3
REMARK    4  A    between atoms: C_3  and  C_4
REMARK    5  A    between atoms: C_4  and  C_9
REMARK                            x       y       z     vdW  Elec       q    Type
REMARK                         _______ _______ _______ _____ _____    ______ ____
ROOT
ATOM      1  O   UNL     1      -3.506  -2.678   0.812  0.00  0.00    -0.253 OA
ATOM      2  C   UNL     1      -3.210   1.841   0.304  0.00  0.00    +0.014 C 
ATOM      3  C   UNL     1      -1.036   0.795  -0.750  0.00  0.00    +0.025 C 
ATOM      4  C   UNL     1      -3.302  -1.628   0.232  0.00  0.00    +0.300 C 
ATOM      5  C   UNL     1      -2.288  -0.019  -1.144  0.00  0.00    +0.055 C 
ATOM      6  C   UNL     1      -3.555   0.588  -0.493  0.00  0.00    +0.053 C 
ATOM      7  N   UNL     1      -2.294  -1.388  -0.668  0.00  0.00    -0.294 N 
ATOM      8  N   UNL     1      -4.052  -0.483   0.348  0.00  0.00    -0.294 N 
ATOM      9  S   UNL     1      -1.484   1.644   0.796  0.00  0.00    -0.154 S 
ATOM     10  H   UNL     1      -1.646  -2.070  -0.958  0.00  0.00    +0.000 HD
ATOM     11  H   UNL     1      -4.837  -0.399   0.937  0.00  0.00    +0.000 HD
ENDROOT
BRANCH   3  12
ATOM     12  C   UNL     1       0.237  -0.050  -0.621  0.00  0.00    -0.039 C 
BRANCH  12  13
ATOM     13  C   UNL     1       1.516   0.767  -0.410  0.00  0.00    -0.052 C 
BRANCH  13  14
ATOM     14  C   UNL     1       2.718  -0.166  -0.250  0.00  0.00    -0.043 C 
BRANCH  14  15
ATOM     15  C   UNL     1       4.009   0.613  -0.016  0.00  0.00    +0.045 C 
BRANCH  15  18
ATOM     16  O   UNL     1       5.188  -1.529   0.088  0.00  0.00    -0.251 OA
ATOM     17  O   UNL     1       6.326   0.365   0.382  0.00  0.00    -0.481 OA
ATOM     18  C   UNL     1       5.184  -0.312   0.149  0.00  0.00    +0.305 C 
ENDBRANCH  15  18
ENDBRANCH  14  15
ENDBRANCH  13  14
ENDBRANCH  12  13
ENDBRANCH   3  12
TORSDOF 5
